t 2.5e-05 /NodeList/0/DeviceList/1/$ns3::WifiNetDevice/Phy/State/Tx ns3::WifiMacHeader (MGT_BEACON ToDS=0, FromDS=0, MoreFrag=0, Retry=0, MoreData=0 Duration/ID=0us, DA=ff:ff:ff:ff:ff:ff, SA=00:00:00:00:00:09, BSSID=00:00:00:00:00:09, FragNumber=0, SeqNumber=0) ns3::MgtProbeResponseHeader (ssid=ns-3-ssid-section-1, rates=[*6mbs 9mbs *12mbs 18mbs *24mbs 36mbs 48mbs 54mbs], ERP information=0|0|0, HT Capabilities=0|0|0|0 , HT Operations=0|0|0 , VHT Capabilities= 0|0) ns3::WifiMacTrailer ()
t 2.5e-05 /NodeList/1/DeviceList/1/$ns3::WifiNetDevice/Phy/State/Tx ns3::WifiMacHeader (MGT_BEACON ToDS=0, FromDS=0, MoreFrag=0, Retry=0, MoreData=0 Duration/ID=0us, DA=ff:ff:ff:ff:ff:ff, SA=00:00:00:00:00:10, BSSID=00:00:00:00:00:10, FragNumber=0, SeqNumber=0) ns3::MgtProbeResponseHeader (ssid=ns-3-ssid-section-2, rates=[*6mbs 9mbs *12mbs 18mbs *24mbs 36mbs 48mbs 54mbs], ERP information=0|0|0, HT Capabilities=0|0|0|0 , HT Operations=0|0|0 , VHT Capabilities= 0|0) ns3::WifiMacTrailer ()
r 0.000145166 /NodeList/2/DeviceList/0/$ns3::WifiNetDevice/Phy/State/RxOk ns3::WifiMacHeader (MGT_BEACON ToDS=0, FromDS=0, MoreFrag=0, Retry=0, MoreData=0 Duration/ID=0us, DA=ff:ff:ff:ff:ff:ff, SA=00:00:00:00:00:09, BSSID=00:00:00:00:00:09, FragNumber=0, SeqNumber=0) ns3::MgtProbeResponseHeader (ssid=ns-3-ssid-section-1, rates=[*6mbs 9mbs *12mbs 18mbs *24mbs 36mbs 48mbs 54mbs], ERP information=0|0|0, HT Capabilities=0|0|0|0 , HT Operations=0|0|0 , VHT Capabilities= 0|0) ns3::WifiMacTrailer ()
r 0.000145166 /NodeList/3/DeviceList/0/$ns3::WifiNetDevice/Phy/State/RxOk ns3::WifiMacHeader (MGT_BEACON ToDS=0, FromDS=0, MoreFrag=0, Retry=0, MoreData=0 Duration/ID=0us, DA=ff:ff:ff:ff:ff:ff, SA=00:00:00:00:00:09, BSSID=00:00:00:00:00:09, FragNumber=0, SeqNumber=0) ns3::MgtProbeResponseHeader (ssid=ns-3-ssid-section-1, rates=[*6mbs 9mbs *12mbs 18mbs *24mbs 36mbs 48mbs 54mbs], ERP information=0|0|0, HT Capabilities=0|0|0|0 , HT Operations=0|0|0 , VHT Capabilities= 0|0) ns3::WifiMacTrailer ()
r 0.000145166 /NodeList/4/DeviceList/0/$ns3::WifiNetDevice/Phy/State/RxOk ns3::WifiMacHeader (MGT_BEACON ToDS=0, FromDS=0, MoreFrag=0, Retry=0, MoreData=0 Duration/ID=0us, DA=ff:ff:ff:ff:ff:ff, SA=00:00:00:00:00:09, BSSID=00:00:00:00:00:09, FragNumber=0, SeqNumber=0) ns3::MgtProbeResponseHeader (ssid=ns-3-ssid-section-1, rates=[*6mbs 9mbs *12mbs 18mbs *24mbs 36mbs 48mbs 54mbs], ERP information=0|0|0, HT Capabilities=0|0|0|0 , HT Operations=0|0|0 , VHT Capabilities= 0|0) ns3::WifiMacTrailer ()
r 0.000145166 /NodeList/5/DeviceList/0/$ns3::WifiNetDevice/Phy/State/RxOk ns3::WifiMacHeader (MGT_BEACON ToDS=0, FromDS=0, MoreFrag=0, Retry=0, MoreData=0 Duration/ID=0us, DA=ff:ff:ff:ff:ff:ff, SA=00:00:00:00:00:09, BSSID=00:00:00:00:00:09, FragNumber=0, SeqNumber=0) ns3::MgtProbeResponseHeader (ssid=ns-3-ssid-section-1, rates=[*6mbs 9mbs *12mbs 18mbs *24mbs 36mbs 48mbs 54mbs], ERP information=0|0|0, HT Capabilities=0|0|0|0 , HT Operations=0|0|0 , VHT Capabilities= 0|0) ns3::WifiMacTrailer ()
r 0.000145166 /NodeList/6/DeviceList/0/$ns3::WifiNetDevice/Phy/State/RxOk ns3::WifiMacHeader (MGT_BEACON ToDS=0, FromDS=0, MoreFrag=0, Retry=0, MoreData=0 Duration/ID=0us, DA=ff:ff:ff:ff:ff:ff, SA=00:00:00:00:00:09, BSSID=00:00:00:00:00:09, FragNumber=0, SeqNumber=0) ns3::MgtProbeResponseHeader (ssid=ns-3-ssid-section-1, rates=[*6mbs 9mbs *12mbs 18mbs *24mbs 36mbs 48mbs 54mbs], ERP information=0|0|0, HT Capabilities=0|0|0|0 , HT Operations=0|0|0 , VHT Capabilities= 0|0) ns3::WifiMacTrailer ()
r 0.000145166 /NodeList/7/DeviceList/0/$ns3::WifiNetDevice/Phy/State/RxOk ns3::WifiMacHeader (MGT_BEACON ToDS=0, FromDS=0, MoreFrag=0, Retry=0, MoreData=0 Duration/ID=0us, DA=ff:ff:ff:ff:ff:ff, SA=00:00:00:00:00:09, BSSID=00:00:00:00:00:09, FragNumber=0, SeqNumber=0) ns3::MgtProbeResponseHeader (ssid=ns-3-ssid-section-1, rates=[*6mbs 9mbs *12mbs 18mbs *24mbs 36mbs 48mbs 54mbs], ERP information=0|0|0, HT Capabilities=0|0|0|0 , HT Operations=0|0|0 , VHT Capabilities= 0|0) ns3::WifiMacTrailer ()
r 0.000145166 /NodeList/8/DeviceList/0/$ns3::WifiNetDevice/Phy/State/RxOk ns3::WifiMacHeader (MGT_BEACON ToDS=0, FromDS=0, MoreFrag=0, Retry=0, MoreData=0 Duration/ID=0us, DA=ff:ff:ff:ff:ff:ff, SA=00:00:00:00:00:10, BSSID=00:00:00:00:00:10, FragNumber=0, SeqNumber=0) ns3::MgtProbeResponseHeader (ssid=ns-3-ssid-section-2, rates=[*6mbs 9mbs *12mbs 18mbs *24mbs 36mbs 48mbs 54mbs], ERP information=0|0|0, HT Capabilities=0|0|0|0 , HT Operations=0|0|0 , VHT Capabilities= 0|0) ns3::WifiMacTrailer ()
r 0.000145166 /NodeList/9/DeviceList/0/$ns3::WifiNetDevice/Phy/State/RxOk ns3::WifiMacHeader (MGT_BEACON ToDS=0, FromDS=0, MoreFrag=0, Retry=0, MoreData=0 Duration/ID=0us, DA=ff:ff:ff:ff:ff:ff, SA=00:00:00:00:00:10, BSSID=00:00:00:00:00:10, FragNumber=0, SeqNumber=0) ns3::MgtProbeResponseHeader (ssid=ns-3-ssid-section-2, rates=[*6mbs 9mbs *12mbs 18mbs *24mbs 36mbs 48mbs 54mbs], ERP information=0|0|0, HT Capabilities=0|0|0|0 , HT Operations=0|0|0 , VHT Capabilities= 0|0) ns3::WifiMacTrailer ()
r 0.000145166 /NodeList/10/DeviceList/0/$ns3::WifiNetDevice/Phy/State/RxOk ns3::WifiMacHeader (MGT_BEACON ToDS=0, FromDS=0, MoreFrag=0, Retry=0, MoreData=0 Duration/ID=0us, DA=ff:ff:ff:ff:ff:ff, SA=00:00:00:00:00:10, BSSID=00:00:00:00:00:10, FragNumber=0, SeqNumber=0) ns3::MgtProbeResponseHeader (ssid=ns-3-ssid-section-2, rates=[*6mbs 9mbs *12mbs 18mbs *24mbs 36mbs 48mbs 54mbs], ERP information=0|0|0, HT Capabilities=0|0|0|0 , HT Operations=0|0|0 , VHT Capabilities= 0|0) ns3::WifiMacTrailer ()
r 0.000145166 /NodeList/11/DeviceList/0/$ns3::WifiNetDevice/Phy/State/RxOk ns3::WifiMacHeader (MGT_BEACON ToDS=0, FromDS=0, MoreFrag=0, Retry=0, MoreData=0 Duration/ID=0us, DA=ff:ff:ff:ff:ff:ff, SA=00:00:00:00:00:10, BSSID=00:00:00:00:00:10, FragNumber=0, SeqNumber=0) ns3::MgtProbeResponseHeader (ssid=ns-3-ssid-section-2, rates=[*6mbs 9mbs *12mbs 18mbs *24mbs 36mbs 48mbs 54mbs], ERP information=0|0|0, HT Capabilities=0|0|0|0 , HT Operations=0|0|0 , VHT Capabilities= 0|0) ns3::WifiMacTrailer ()
r 0.000145166 /NodeList/12/DeviceList/0/$ns3::WifiNetDevice/Phy/State/RxOk ns3::WifiMacHeader (MGT_BEACON ToDS=0, FromDS=0, MoreFrag=0, Retry=0, MoreData=0 Duration/ID=0us, DA=ff:ff:ff:ff:ff:ff, SA=00:00:00:00:00:10, BSSID=00:00:00:00:00:10, FragNumber=0, SeqNumber=0) ns3::MgtProbeResponseHeader (ssid=ns-3-ssid-section-2, rates=[*6mbs 9mbs *12mbs 18mbs *24mbs 36mbs 48mbs 54mbs], ERP information=0|0|0, HT Capabilities=0|0|0|0 , HT Operations=0|0|0 , VHT Capabilities= 0|0) ns3::WifiMacTrailer ()
r 0.000145166 /NodeList/13/DeviceList/0/$ns3::WifiNetDevice/Phy/State/RxOk ns3::WifiMacHeader (MGT_BEACON ToDS=0, FromDS=0, MoreFrag=0, Retry=0, MoreData=0 Duration/ID=0us, DA=ff:ff:ff:ff:ff:ff, SA=00:00:00:00:00:10, BSSID=00:00:00:00:00:10, FragNumber=0, SeqNumber=0) ns3::MgtProbeResponseHeader (ssid=ns-3-ssid-section-2, rates=[*6mbs 9mbs *12mbs 18mbs *24mbs 36mbs 48mbs 54mbs], ERP information=0|0|0, HT Capabilities=0|0|0|0 , HT Operations=0|0|0 , VHT Capabilities= 0|0) ns3::WifiMacTrailer ()
t 0.000179166 /NodeList/10/DeviceList/0/$ns3::WifiNetDevice/Phy/State/Tx ns3::WifiMacHeader (MGT_ASSOCIATION_REQUEST ToDS=0, FromDS=0, MoreFrag=0, Retry=0, MoreData=0 Duration/ID=60us, DA=00:00:00:00:00:10, SA=00:00:00:00:00:0c, BSSID=00:00:00:00:00:10, FragNumber=0, SeqNumber=0) ns3::MgtAssocRequestHeader (ssid=ns-3-ssid-section-2, rates=[6mbs 9mbs 12mbs 18mbs 24mbs 36mbs 48mbs 54mbs], HT Capabilities=0|0|0|0 , VHT Capabilities= 0|0) ns3::WifiMacTrailer ()
t 0.000233166 /NodeList/4/DeviceList/0/$ns3::WifiNetDevice/Phy/State/Tx ns3::WifiMacHeader (MGT_ASSOCIATION_REQUEST ToDS=0, FromDS=0, MoreFrag=0, Retry=0, MoreData=0 Duration/ID=60us, DA=00:00:00:00:00:09, SA=00:00:00:00:00:05, BSSID=00:00:00:00:00:09, FragNumber=0, SeqNumber=0) ns3::MgtAssocRequestHeader (ssid=ns-3-ssid-section-1, rates=[6mbs 9mbs 12mbs 18mbs 24mbs 36mbs 48mbs 54mbs], HT Capabilities=0|0|0|0 , VHT Capabilities= 0|0) ns3::WifiMacTrailer ()
r 0.000287332 /NodeList/9/DeviceList/0/$ns3::WifiNetDevice/Phy/State/RxOk ns3::WifiMacHeader (MGT_ASSOCIATION_REQUEST ToDS=0, FromDS=0, MoreFrag=0, Retry=0, MoreData=0 Duration/ID=60us, DA=00:00:00:00:00:10, SA=00:00:00:00:00:0c, BSSID=00:00:00:00:00:10, FragNumber=0, SeqNumber=0) ns3::MgtAssocRequestHeader (ssid=ns-3-ssid-section-2, rates=[6mbs 9mbs 12mbs 18mbs 24mbs 36mbs 48mbs 54mbs], HT Capabilities=0|0|0|0 , VHT Capabilities= 0|0) ns3::WifiMacTrailer ()
r 0.000287332 /NodeList/11/DeviceList/0/$ns3::WifiNetDevice/Phy/State/RxOk ns3::WifiMacHeader (MGT_ASSOCIATION_REQUEST ToDS=0, FromDS=0, MoreFrag=0, Retry=0, MoreData=0 Duration/ID=60us, DA=00:00:00:00:00:10, SA=00:00:00:00:00:0c, BSSID=00:00:00:00:00:10, FragNumber=0, SeqNumber=0) ns3::MgtAssocRequestHeader (ssid=ns-3-ssid-section-2, rates=[6mbs 9mbs 12mbs 18mbs 24mbs 36mbs 48mbs 54mbs], HT Capabilities=0|0|0|0 , VHT Capabilities= 0|0) ns3::WifiMacTrailer ()
r 0.000287332 /NodeList/1/DeviceList/1/$ns3::WifiNetDevice/Phy/State/RxOk ns3::WifiMacHeader (MGT_ASSOCIATION_REQUEST ToDS=0, FromDS=0, MoreFrag=0, Retry=0, MoreData=0 Duration/ID=60us, DA=00:00:00:00:00:10, SA=00:00:00:00:00:0c, BSSID=00:00:00:00:00:10, FragNumber=0, SeqNumber=0) ns3::MgtAssocRequestHeader (ssid=ns-3-ssid-section-2, rates=[6mbs 9mbs 12mbs 18mbs 24mbs 36mbs 48mbs 54mbs], HT Capabilities=0|0|0|0 , VHT Capabilities= 0|0) ns3::WifiMacTrailer ()
r 0.000287454 /NodeList/8/DeviceList/0/$ns3::WifiNetDevice/Phy/State/RxOk ns3::WifiMacHeader (MGT_ASSOCIATION_REQUEST ToDS=0, FromDS=0, MoreFrag=0, Retry=0, MoreData=0 Duration/ID=60us, DA=00:00:00:00:00:10, SA=00:00:00:00:00:0c, BSSID=00:00:00:00:00:10, FragNumber=0, SeqNumber=0) ns3::MgtAssocRequestHeader (ssid=ns-3-ssid-section-2, rates=[6mbs 9mbs 12mbs 18mbs 24mbs 36mbs 48mbs 54mbs], HT Capabilities=0|0|0|0 , VHT Capabilities= 0|0) ns3::WifiMacTrailer ()
r 0.000287454 /NodeList/12/DeviceList/0/$ns3::WifiNetDevice/Phy/State/RxOk ns3::WifiMacHeader (MGT_ASSOCIATION_REQUEST ToDS=0, FromDS=0, MoreFrag=0, Retry=0, MoreData=0 Duration/ID=60us, DA=00:00:00:00:00:10, SA=00:00:00:00:00:0c, BSSID=00:00:00:00:00:10, FragNumber=0, SeqNumber=0) ns3::MgtAssocRequestHeader (ssid=ns-3-ssid-section-2, rates=[6mbs 9mbs 12mbs 18mbs 24mbs 36mbs 48mbs 54mbs], HT Capabilities=0|0|0|0 , VHT Capabilities= 0|0) ns3::WifiMacTrailer ()
r 0.000287499 /NodeList/13/DeviceList/0/$ns3::WifiNetDevice/Phy/State/RxOk ns3::WifiMacHeader (MGT_ASSOCIATION_REQUEST ToDS=0, FromDS=0, MoreFrag=0, Retry=0, MoreData=0 Duration/ID=60us, DA=00:00:00:00:00:10, SA=00:00:00:00:00:0c, BSSID=00:00:00:00:00:10, FragNumber=0, SeqNumber=0) ns3::MgtAssocRequestHeader (ssid=ns-3-ssid-section-2, rates=[6mbs 9mbs 12mbs 18mbs 24mbs 36mbs 48mbs 54mbs], HT Capabilities=0|0|0|0 , VHT Capabilities= 0|0) ns3::WifiMacTrailer ()
t 0.000303332 /NodeList/1/DeviceList/1/$ns3::WifiNetDevice/Phy/State/Tx ns3::WifiMacHeader (CTL_ACK Duration/ID=0us, RA=00:00:00:00:00:0c) ns3::WifiMacTrailer ()
r 0.000341332 /NodeList/3/DeviceList/0/$ns3::WifiNetDevice/Phy/State/RxOk ns3::WifiMacHeader (MGT_ASSOCIATION_REQUEST ToDS=0, FromDS=0, MoreFrag=0, Retry=0, MoreData=0 Duration/ID=60us, DA=00:00:00:00:00:09, SA=00:00:00:00:00:05, BSSID=00:00:00:00:00:09, FragNumber=0, SeqNumber=0) ns3::MgtAssocRequestHeader (ssid=ns-3-ssid-section-1, rates=[6mbs 9mbs 12mbs 18mbs 24mbs 36mbs 48mbs 54mbs], HT Capabilities=0|0|0|0 , VHT Capabilities= 0|0) ns3::WifiMacTrailer ()
r 0.000341332 /NodeList/5/DeviceList/0/$ns3::WifiNetDevice/Phy/State/RxOk ns3::WifiMacHeader (MGT_ASSOCIATION_REQUEST ToDS=0, FromDS=0, MoreFrag=0, Retry=0, MoreData=0 Duration/ID=60us, DA=00:00:00:00:00:09, SA=00:00:00:00:00:05, BSSID=00:00:00:00:00:09, FragNumber=0, SeqNumber=0) ns3::MgtAssocRequestHeader (ssid=ns-3-ssid-section-1, rates=[6mbs 9mbs 12mbs 18mbs 24mbs 36mbs 48mbs 54mbs], HT Capabilities=0|0|0|0 , VHT Capabilities= 0|0) ns3::WifiMacTrailer ()
r 0.000341332 /NodeList/0/DeviceList/1/$ns3::WifiNetDevice/Phy/State/RxOk ns3::WifiMacHeader (MGT_ASSOCIATION_REQUEST ToDS=0, FromDS=0, MoreFrag=0, Retry=0, MoreData=0 Duration/ID=60us, DA=00:00:00:00:00:09, SA=00:00:00:00:00:05, BSSID=00:00:00:00:00:09, FragNumber=0, SeqNumber=0) ns3::MgtAssocRequestHeader (ssid=ns-3-ssid-section-1, rates=[6mbs 9mbs 12mbs 18mbs 24mbs 36mbs 48mbs 54mbs], HT Capabilities=0|0|0|0 , VHT Capabilities= 0|0) ns3::WifiMacTrailer ()
r 0.000341454 /NodeList/2/DeviceList/0/$ns3::WifiNetDevice/Phy/State/RxOk ns3::WifiMacHeader (MGT_ASSOCIATION_REQUEST ToDS=0, FromDS=0, MoreFrag=0, Retry=0, MoreData=0 Duration/ID=60us, DA=00:00:00:00:00:09, SA=00:00:00:00:00:05, BSSID=00:00:00:00:00:09, FragNumber=0, SeqNumber=0) ns3::MgtAssocRequestHeader (ssid=ns-3-ssid-section-1, rates=[6mbs 9mbs 12mbs 18mbs 24mbs 36mbs 48mbs 54mbs], HT Capabilities=0|0|0|0 , VHT Capabilities= 0|0) ns3::WifiMacTrailer ()
r 0.000341454 /NodeList/6/DeviceList/0/$ns3::WifiNetDevice/Phy/State/RxOk ns3::WifiMacHeader (MGT_ASSOCIATION_REQUEST ToDS=0, FromDS=0, MoreFrag=0, Retry=0, MoreData=0 Duration/ID=60us, DA=00:00:00:00:00:09, SA=00:00:00:00:00:05, BSSID=00:00:00:00:00:09, FragNumber=0, SeqNumber=0) ns3::MgtAssocRequestHeader (ssid=ns-3-ssid-section-1, rates=[6mbs 9mbs 12mbs 18mbs 24mbs 36mbs 48mbs 54mbs], HT Capabilities=0|0|0|0 , VHT Capabilities= 0|0) ns3::WifiMacTrailer ()
r 0.000341499 /NodeList/7/DeviceList/0/$ns3::WifiNetDevice/Phy/State/RxOk ns3::WifiMacHeader (MGT_ASSOCIATION_REQUEST ToDS=0, FromDS=0, MoreFrag=0, Retry=0, MoreData=0 Duration/ID=60us, DA=00:00:00:00:00:09, SA=00:00:00:00:00:05, BSSID=00:00:00:00:00:09, FragNumber=0, SeqNumber=0) ns3::MgtAssocRequestHeader (ssid=ns-3-ssid-section-1, rates=[6mbs 9mbs 12mbs 18mbs 24mbs 36mbs 48mbs 54mbs], HT Capabilities=0|0|0|0 , VHT Capabilities= 0|0) ns3::WifiMacTrailer ()
r 0.000347498 /NodeList/8/DeviceList/0/$ns3::WifiNetDevice/Phy/State/RxOk ns3::WifiMacHeader (CTL_ACK Duration/ID=0us, RA=00:00:00:00:00:0c) ns3::WifiMacTrailer ()
r 0.000347498 /NodeList/9/DeviceList/0/$ns3::WifiNetDevice/Phy/State/RxOk ns3::WifiMacHeader (CTL_ACK Duration/ID=0us, RA=00:00:00:00:00:0c) ns3::WifiMacTrailer ()
r 0.000347498 /NodeList/10/DeviceList/0/$ns3::WifiNetDevice/Phy/State/RxOk ns3::WifiMacHeader (CTL_ACK Duration/ID=0us, RA=00:00:00:00:00:0c) ns3::WifiMacTrailer ()
r 0.000347498 /NodeList/11/DeviceList/0/$ns3::WifiNetDevice/Phy/State/RxOk ns3::WifiMacHeader (CTL_ACK Duration/ID=0us, RA=00:00:00:00:00:0c) ns3::WifiMacTrailer ()
r 0.000347498 /NodeList/12/DeviceList/0/$ns3::WifiNetDevice/Phy/State/RxOk ns3::WifiMacHeader (CTL_ACK Duration/ID=0us, RA=00:00:00:00:00:0c) ns3::WifiMacTrailer ()
r 0.000347498 /NodeList/13/DeviceList/0/$ns3::WifiNetDevice/Phy/State/RxOk ns3::WifiMacHeader (CTL_ACK Duration/ID=0us, RA=00:00:00:00:00:0c) ns3::WifiMacTrailer ()
t 0.000357332 /NodeList/0/DeviceList/1/$ns3::WifiNetDevice/Phy/State/Tx ns3::WifiMacHeader (CTL_ACK Duration/ID=0us, RA=00:00:00:00:00:05) ns3::WifiMacTrailer ()
r 0.000401498 /NodeList/2/DeviceList/0/$ns3::WifiNetDevice/Phy/State/RxOk ns3::WifiMacHeader (CTL_ACK Duration/ID=0us, RA=00:00:00:00:00:05) ns3::WifiMacTrailer ()
r 0.000401498 /NodeList/3/DeviceList/0/$ns3::WifiNetDevice/Phy/State/RxOk ns3::WifiMacHeader (CTL_ACK Duration/ID=0us, RA=00:00:00:00:00:05) ns3::WifiMacTrailer ()
r 0.000401498 /NodeList/4/DeviceList/0/$ns3::WifiNetDevice/Phy/State/RxOk ns3::WifiMacHeader (CTL_ACK Duration/ID=0us, RA=00:00:00:00:00:05) ns3::WifiMacTrailer ()
r 0.000401498 /NodeList/5/DeviceList/0/$ns3::WifiNetDevice/Phy/State/RxOk ns3::WifiMacHeader (CTL_ACK Duration/ID=0us, RA=00:00:00:00:00:05) ns3::WifiMacTrailer ()
r 0.000401498 /NodeList/6/DeviceList/0/$ns3::WifiNetDevice/Phy/State/RxOk ns3::WifiMacHeader (CTL_ACK Duration/ID=0us, RA=00:00:00:00:00:05) ns3::WifiMacTrailer ()
r 0.000401498 /NodeList/7/DeviceList/0/$ns3::WifiNetDevice/Phy/State/RxOk ns3::WifiMacHeader (CTL_ACK Duration/ID=0us, RA=00:00:00:00:00:05) ns3::WifiMacTrailer ()
t 0.000417498 /NodeList/8/DeviceList/0/$ns3::WifiNetDevice/Phy/State/Tx ns3::WifiMacHeader (MGT_ASSOCIATION_REQUEST ToDS=0, FromDS=0, MoreFrag=0, Retry=0, MoreData=0 Duration/ID=60us, DA=00:00:00:00:00:10, SA=00:00:00:00:00:0a, BSSID=00:00:00:00:00:10, FragNumber=0, SeqNumber=0) ns3::MgtAssocRequestHeader (ssid=ns-3-ssid-section-2, rates=[6mbs 9mbs 12mbs 18mbs 24mbs 36mbs 48mbs 54mbs], HT Capabilities=0|0|0|0 , VHT Capabilities= 0|0) ns3::WifiMacTrailer ()
t 0.000417499 /NodeList/13/DeviceList/0/$ns3::WifiNetDevice/Phy/State/Tx ns3::WifiMacHeader (MGT_ASSOCIATION_REQUEST ToDS=0, FromDS=0, MoreFrag=0, Retry=0, MoreData=0 Duration/ID=60us, DA=00:00:00:00:00:10, SA=00:00:00:00:00:0f, BSSID=00:00:00:00:00:10, FragNumber=0, SeqNumber=0) ns3::MgtAssocRequestHeader (ssid=ns-3-ssid-section-2, rates=[6mbs 9mbs 12mbs 18mbs 24mbs 36mbs 48mbs 54mbs], HT Capabilities=0|0|0|0 , VHT Capabilities= 0|0) ns3::WifiMacTrailer ()
t 0.000444499 /NodeList/7/DeviceList/0/$ns3::WifiNetDevice/Phy/State/Tx ns3::WifiMacHeader (MGT_ASSOCIATION_REQUEST ToDS=0, FromDS=0, MoreFrag=0, Retry=0, MoreData=0 Duration/ID=60us, DA=00:00:00:00:00:09, SA=00:00:00:00:00:08, BSSID=00:00:00:00:00:09, FragNumber=0, SeqNumber=0) ns3::MgtAssocRequestHeader (ssid=ns-3-ssid-section-1, rates=[6mbs 9mbs 12mbs 18mbs 24mbs 36mbs 48mbs 54mbs], HT Capabilities=0|0|0|0 , VHT Capabilities= 0|0) ns3::WifiMacTrailer ()
r 0.000525664 /NodeList/9/DeviceList/0/$ns3::WifiNetDevice/Phy/State/RxOk ns3::WifiMacHeader (MGT_ASSOCIATION_REQUEST ToDS=0, FromDS=0, MoreFrag=0, Retry=0, MoreData=0 Duration/ID=60us, DA=00:00:00:00:00:10, SA=00:00:00:00:00:0a, BSSID=00:00:00:00:00:10, FragNumber=0, SeqNumber=0) ns3::MgtAssocRequestHeader (ssid=ns-3-ssid-section-2, rates=[6mbs 9mbs 12mbs 18mbs 24mbs 36mbs 48mbs 54mbs], HT Capabilities=0|0|0|0 , VHT Capabilities= 0|0) ns3::WifiMacTrailer ()
r 0.000525665 /NodeList/12/DeviceList/0/$ns3::WifiNetDevice/Phy/State/RxOk ns3::WifiMacHeader (MGT_ASSOCIATION_REQUEST ToDS=0, FromDS=0, MoreFrag=0, Retry=0, MoreData=0 Duration/ID=60us, DA=00:00:00:00:00:10, SA=00:00:00:00:00:0f, BSSID=00:00:00:00:00:10, FragNumber=0, SeqNumber=0) ns3::MgtAssocRequestHeader (ssid=ns-3-ssid-section-2, rates=[6mbs 9mbs 12mbs 18mbs 24mbs 36mbs 48mbs 54mbs], HT Capabilities=0|0|0|0 , VHT Capabilities= 0|0) ns3::WifiMacTrailer ()
r 0.000552665 /NodeList/2/DeviceList/0/$ns3::WifiNetDevice/Phy/State/RxOk ns3::WifiMacHeader (MGT_ASSOCIATION_REQUEST ToDS=0, FromDS=0, MoreFrag=0, Retry=0, MoreData=0 Duration/ID=60us, DA=00:00:00:00:00:09, SA=00:00:00:00:00:08, BSSID=00:00:00:00:00:09, FragNumber=0, SeqNumber=0) ns3::MgtAssocRequestHeader (ssid=ns-3-ssid-section-1, rates=[6mbs 9mbs 12mbs 18mbs 24mbs 36mbs 48mbs 54mbs], HT Capabilities=0|0|0|0 , VHT Capabilities= 0|0) ns3::WifiMacTrailer ()
r 0.000552665 /NodeList/6/DeviceList/0/$ns3::WifiNetDevice/Phy/State/RxOk ns3::WifiMacHeader (MGT_ASSOCIATION_REQUEST ToDS=0, FromDS=0, MoreFrag=0, Retry=0, MoreData=0 Duration/ID=60us, DA=00:00:00:00:00:09, SA=00:00:00:00:00:08, BSSID=00:00:00:00:00:09, FragNumber=0, SeqNumber=0) ns3::MgtAssocRequestHeader (ssid=ns-3-ssid-section-1, rates=[6mbs 9mbs 12mbs 18mbs 24mbs 36mbs 48mbs 54mbs], HT Capabilities=0|0|0|0 , VHT Capabilities= 0|0) ns3::WifiMacTrailer ()
r 0.000552665 /NodeList/0/DeviceList/1/$ns3::WifiNetDevice/Phy/State/RxOk ns3::WifiMacHeader (MGT_ASSOCIATION_REQUEST ToDS=0, FromDS=0, MoreFrag=0, Retry=0, MoreData=0 Duration/ID=60us, DA=00:00:00:00:00:09, SA=00:00:00:00:00:08, BSSID=00:00:00:00:00:09, FragNumber=0, SeqNumber=0) ns3::MgtAssocRequestHeader (ssid=ns-3-ssid-section-1, rates=[6mbs 9mbs 12mbs 18mbs 24mbs 36mbs 48mbs 54mbs], HT Capabilities=0|0|0|0 , VHT Capabilities= 0|0) ns3::WifiMacTrailer ()
r 0.000552787 /NodeList/3/DeviceList/0/$ns3::WifiNetDevice/Phy/State/RxOk ns3::WifiMacHeader (MGT_ASSOCIATION_REQUEST ToDS=0, FromDS=0, MoreFrag=0, Retry=0, MoreData=0 Duration/ID=60us, DA=00:00:00:00:00:09, SA=00:00:00:00:00:08, BSSID=00:00:00:00:00:09, FragNumber=0, SeqNumber=0) ns3::MgtAssocRequestHeader (ssid=ns-3-ssid-section-1, rates=[6mbs 9mbs 12mbs 18mbs 24mbs 36mbs 48mbs 54mbs], HT Capabilities=0|0|0|0 , VHT Capabilities= 0|0) ns3::WifiMacTrailer ()
r 0.000552787 /NodeList/5/DeviceList/0/$ns3::WifiNetDevice/Phy/State/RxOk ns3::WifiMacHeader (MGT_ASSOCIATION_REQUEST ToDS=0, FromDS=0, MoreFrag=0, Retry=0, MoreData=0 Duration/ID=60us, DA=00:00:00:00:00:09, SA=00:00:00:00:00:08, BSSID=00:00:00:00:00:09, FragNumber=0, SeqNumber=0) ns3::MgtAssocRequestHeader (ssid=ns-3-ssid-section-1, rates=[6mbs 9mbs 12mbs 18mbs 24mbs 36mbs 48mbs 54mbs], HT Capabilities=0|0|0|0 , VHT Capabilities= 0|0) ns3::WifiMacTrailer ()
r 0.000552832 /NodeList/4/DeviceList/0/$ns3::WifiNetDevice/Phy/State/RxOk ns3::WifiMacHeader (MGT_ASSOCIATION_REQUEST ToDS=0, FromDS=0, MoreFrag=0, Retry=0, MoreData=0 Duration/ID=60us, DA=00:00:00:00:00:09, SA=00:00:00:00:00:08, BSSID=00:00:00:00:00:09, FragNumber=0, SeqNumber=0) ns3::MgtAssocRequestHeader (ssid=ns-3-ssid-section-1, rates=[6mbs 9mbs 12mbs 18mbs 24mbs 36mbs 48mbs 54mbs], HT Capabilities=0|0|0|0 , VHT Capabilities= 0|0) ns3::WifiMacTrailer ()
t 0.000568665 /NodeList/0/DeviceList/1/$ns3::WifiNetDevice/Phy/State/Tx ns3::WifiMacHeader (CTL_ACK Duration/ID=0us, RA=00:00:00:00:00:08) ns3::WifiMacTrailer ()
r 0.000612831 /NodeList/2/DeviceList/0/$ns3::WifiNetDevice/Phy/State/RxOk ns3::WifiMacHeader (CTL_ACK Duration/ID=0us, RA=00:00:00:00:00:08) ns3::WifiMacTrailer ()
r 0.000612831 /NodeList/3/DeviceList/0/$ns3::WifiNetDevice/Phy/State/RxOk ns3::WifiMacHeader (CTL_ACK Duration/ID=0us, RA=00:00:00:00:00:08) ns3::WifiMacTrailer ()
r 0.000612831 /NodeList/4/DeviceList/0/$ns3::WifiNetDevice/Phy/State/RxOk ns3::WifiMacHeader (CTL_ACK Duration/ID=0us, RA=00:00:00:00:00:08) ns3::WifiMacTrailer ()
r 0.000612831 /NodeList/5/DeviceList/0/$ns3::WifiNetDevice/Phy/State/RxOk ns3::WifiMacHeader (CTL_ACK Duration/ID=0us, RA=00:00:00:00:00:08) ns3::WifiMacTrailer ()
r 0.000612831 /NodeList/6/DeviceList/0/$ns3::WifiNetDevice/Phy/State/RxOk ns3::WifiMacHeader (CTL_ACK Duration/ID=0us, RA=00:00:00:00:00:08) ns3::WifiMacTrailer ()
r 0.000612831 /NodeList/7/DeviceList/0/$ns3::WifiNetDevice/Phy/State/RxOk ns3::WifiMacHeader (CTL_ACK Duration/ID=0us, RA=00:00:00:00:00:08) ns3::WifiMacTrailer ()
t 0.000628664 /NodeList/9/DeviceList/0/$ns3::WifiNetDevice/Phy/State/Tx ns3::WifiMacHeader (MGT_ASSOCIATION_REQUEST ToDS=0, FromDS=0, MoreFrag=0, Retry=0, MoreData=0 Duration/ID=60us, DA=00:00:00:00:00:10, SA=00:00:00:00:00:0b, BSSID=00:00:00:00:00:10, FragNumber=0, SeqNumber=0) ns3::MgtAssocRequestHeader (ssid=ns-3-ssid-section-2, rates=[6mbs 9mbs 12mbs 18mbs 24mbs 36mbs 48mbs 54mbs], HT Capabilities=0|0|0|0 , VHT Capabilities= 0|0) ns3::WifiMacTrailer ()
t 0.000628665 /NodeList/12/DeviceList/0/$ns3::WifiNetDevice/Phy/State/Tx ns3::WifiMacHeader (MGT_ASSOCIATION_REQUEST ToDS=0, FromDS=0, MoreFrag=0, Retry=0, MoreData=0 Duration/ID=60us, DA=00:00:00:00:00:10, SA=00:00:00:00:00:0e, BSSID=00:00:00:00:00:10, FragNumber=0, SeqNumber=0) ns3::MgtAssocRequestHeader (ssid=ns-3-ssid-section-2, rates=[6mbs 9mbs 12mbs 18mbs 24mbs 36mbs 48mbs 54mbs], HT Capabilities=0|0|0|0 , VHT Capabilities= 0|0) ns3::WifiMacTrailer ()
t 0.000664665 /NodeList/0/DeviceList/1/$ns3::WifiNetDevice/Phy/State/Tx ns3::WifiMacHeader (MGT_ASSOCIATION_RESPONSE ToDS=0, FromDS=0, MoreFrag=0, Retry=0, MoreData=0 Duration/ID=60us, DA=00:00:00:00:00:05, SA=00:00:00:00:00:09, BSSID=00:00:00:00:00:09, FragNumber=0, SeqNumber=1) ns3::MgtAssocResponseHeader (status code=success, rates=[*6mbs 9mbs *12mbs 18mbs *24mbs 36mbs 48mbs 54mbs], ERP information=0|0|0, HT Capabilities=0|0|0|0 , HT Operations=0|0|0 , VHT Capabilities= 0|0) ns3::WifiMacTrailer ()
r 0.00073683 /NodeList/8/DeviceList/0/$ns3::WifiNetDevice/Phy/State/RxOk ns3::WifiMacHeader (MGT_ASSOCIATION_REQUEST ToDS=0, FromDS=0, MoreFrag=0, Retry=0, MoreData=0 Duration/ID=60us, DA=00:00:00:00:00:10, SA=00:00:00:00:00:0b, BSSID=00:00:00:00:00:10, FragNumber=0, SeqNumber=0) ns3::MgtAssocRequestHeader (ssid=ns-3-ssid-section-2, rates=[6mbs 9mbs 12mbs 18mbs 24mbs 36mbs 48mbs 54mbs], HT Capabilities=0|0|0|0 , VHT Capabilities= 0|0) ns3::WifiMacTrailer ()
r 0.00073683 /NodeList/10/DeviceList/0/$ns3::WifiNetDevice/Phy/State/RxOk ns3::WifiMacHeader (MGT_ASSOCIATION_REQUEST ToDS=0, FromDS=0, MoreFrag=0, Retry=0, MoreData=0 Duration/ID=60us, DA=00:00:00:00:00:10, SA=00:00:00:00:00:0b, BSSID=00:00:00:00:00:10, FragNumber=0, SeqNumber=0) ns3::MgtAssocRequestHeader (ssid=ns-3-ssid-section-2, rates=[6mbs 9mbs 12mbs 18mbs 24mbs 36mbs 48mbs 54mbs], HT Capabilities=0|0|0|0 , VHT Capabilities= 0|0) ns3::WifiMacTrailer ()
r 0.000736831 /NodeList/11/DeviceList/0/$ns3::WifiNetDevice/Phy/State/RxOk ns3::WifiMacHeader (MGT_ASSOCIATION_REQUEST ToDS=0, FromDS=0, MoreFrag=0, Retry=0, MoreData=0 Duration/ID=60us, DA=00:00:00:00:00:10, SA=00:00:00:00:00:0e, BSSID=00:00:00:00:00:10, FragNumber=0, SeqNumber=0) ns3::MgtAssocRequestHeader (ssid=ns-3-ssid-section-2, rates=[6mbs 9mbs 12mbs 18mbs 24mbs 36mbs 48mbs 54mbs], HT Capabilities=0|0|0|0 , VHT Capabilities= 0|0) ns3::WifiMacTrailer ()
r 0.000736831 /NodeList/13/DeviceList/0/$ns3::WifiNetDevice/Phy/State/RxOk ns3::WifiMacHeader (MGT_ASSOCIATION_REQUEST ToDS=0, FromDS=0, MoreFrag=0, Retry=0, MoreData=0 Duration/ID=60us, DA=00:00:00:00:00:10, SA=00:00:00:00:00:0e, BSSID=00:00:00:00:00:10, FragNumber=0, SeqNumber=0) ns3::MgtAssocRequestHeader (ssid=ns-3-ssid-section-2, rates=[6mbs 9mbs 12mbs 18mbs 24mbs 36mbs 48mbs 54mbs], HT Capabilities=0|0|0|0 , VHT Capabilities= 0|0) ns3::WifiMacTrailer ()
r 0.000748831 /NodeList/2/DeviceList/0/$ns3::WifiNetDevice/Phy/State/RxOk ns3::WifiMacHeader (MGT_ASSOCIATION_RESPONSE ToDS=0, FromDS=0, MoreFrag=0, Retry=0, MoreData=0 Duration/ID=60us, DA=00:00:00:00:00:05, SA=00:00:00:00:00:09, BSSID=00:00:00:00:00:09, FragNumber=0, SeqNumber=1) ns3::MgtAssocResponseHeader (status code=success, rates=[*6mbs 9mbs *12mbs 18mbs *24mbs 36mbs 48mbs 54mbs], ERP information=0|0|0, HT Capabilities=0|0|0|0 , HT Operations=0|0|0 , VHT Capabilities= 0|0) ns3::WifiMacTrailer ()
r 0.000748831 /NodeList/3/DeviceList/0/$ns3::WifiNetDevice/Phy/State/RxOk ns3::WifiMacHeader (MGT_ASSOCIATION_RESPONSE ToDS=0, FromDS=0, MoreFrag=0, Retry=0, MoreData=0 Duration/ID=60us, DA=00:00:00:00:00:05, SA=00:00:00:00:00:09, BSSID=00:00:00:00:00:09, FragNumber=0, SeqNumber=1) ns3::MgtAssocResponseHeader (status code=success, rates=[*6mbs 9mbs *12mbs 18mbs *24mbs 36mbs 48mbs 54mbs], ERP information=0|0|0, HT Capabilities=0|0|0|0 , HT Operations=0|0|0 , VHT Capabilities= 0|0) ns3::WifiMacTrailer ()
r 0.000748831 /NodeList/4/DeviceList/0/$ns3::WifiNetDevice/Phy/State/RxOk ns3::WifiMacHeader (MGT_ASSOCIATION_RESPONSE ToDS=0, FromDS=0, MoreFrag=0, Retry=0, MoreData=0 Duration/ID=60us, DA=00:00:00:00:00:05, SA=00:00:00:00:00:09, BSSID=00:00:00:00:00:09, FragNumber=0, SeqNumber=1) ns3::MgtAssocResponseHeader (status code=success, rates=[*6mbs 9mbs *12mbs 18mbs *24mbs 36mbs 48mbs 54mbs], ERP information=0|0|0, HT Capabilities=0|0|0|0 , HT Operations=0|0|0 , VHT Capabilities= 0|0) ns3::WifiMacTrailer ()
r 0.000748831 /NodeList/5/DeviceList/0/$ns3::WifiNetDevice/Phy/State/RxOk ns3::WifiMacHeader (MGT_ASSOCIATION_RESPONSE ToDS=0, FromDS=0, MoreFrag=0, Retry=0, MoreData=0 Duration/ID=60us, DA=00:00:00:00:00:05, SA=00:00:00:00:00:09, BSSID=00:00:00:00:00:09, FragNumber=0, SeqNumber=1) ns3::MgtAssocResponseHeader (status code=success, rates=[*6mbs 9mbs *12mbs 18mbs *24mbs 36mbs 48mbs 54mbs], ERP information=0|0|0, HT Capabilities=0|0|0|0 , HT Operations=0|0|0 , VHT Capabilities= 0|0) ns3::WifiMacTrailer ()
r 0.000748831 /NodeList/6/DeviceList/0/$ns3::WifiNetDevice/Phy/State/RxOk ns3::WifiMacHeader (MGT_ASSOCIATION_RESPONSE ToDS=0, FromDS=0, MoreFrag=0, Retry=0, MoreData=0 Duration/ID=60us, DA=00:00:00:00:00:05, SA=00:00:00:00:00:09, BSSID=00:00:00:00:00:09, FragNumber=0, SeqNumber=1) ns3::MgtAssocResponseHeader (status code=success, rates=[*6mbs 9mbs *12mbs 18mbs *24mbs 36mbs 48mbs 54mbs], ERP information=0|0|0, HT Capabilities=0|0|0|0 , HT Operations=0|0|0 , VHT Capabilities= 0|0) ns3::WifiMacTrailer ()
r 0.000748831 /NodeList/7/DeviceList/0/$ns3::WifiNetDevice/Phy/State/RxOk ns3::WifiMacHeader (MGT_ASSOCIATION_RESPONSE ToDS=0, FromDS=0, MoreFrag=0, Retry=0, MoreData=0 Duration/ID=60us, DA=00:00:00:00:00:05, SA=00:00:00:00:00:09, BSSID=00:00:00:00:00:09, FragNumber=0, SeqNumber=1) ns3::MgtAssocResponseHeader (status code=success, rates=[*6mbs 9mbs *12mbs 18mbs *24mbs 36mbs 48mbs 54mbs], ERP information=0|0|0, HT Capabilities=0|0|0|0 , HT Operations=0|0|0 , VHT Capabilities= 0|0) ns3::WifiMacTrailer ()
t 0.000764831 /NodeList/4/DeviceList/0/$ns3::WifiNetDevice/Phy/State/Tx ns3::WifiMacHeader (CTL_ACK Duration/ID=0us, RA=00:00:00:00:00:09) ns3::WifiMacTrailer ()
r 0.000808997 /NodeList/3/DeviceList/0/$ns3::WifiNetDevice/Phy/State/RxOk ns3::WifiMacHeader (CTL_ACK Duration/ID=0us, RA=00:00:00:00:00:09) ns3::WifiMacTrailer ()
r 0.000808997 /NodeList/5/DeviceList/0/$ns3::WifiNetDevice/Phy/State/RxOk ns3::WifiMacHeader (CTL_ACK Duration/ID=0us, RA=00:00:00:00:00:09) ns3::WifiMacTrailer ()
r 0.000808997 /NodeList/0/DeviceList/1/$ns3::WifiNetDevice/Phy/State/RxOk ns3::WifiMacHeader (CTL_ACK Duration/ID=0us, RA=00:00:00:00:00:09) ns3::WifiMacTrailer ()
r 0.000809119 /NodeList/2/DeviceList/0/$ns3::WifiNetDevice/Phy/State/RxOk ns3::WifiMacHeader (CTL_ACK Duration/ID=0us, RA=00:00:00:00:00:09) ns3::WifiMacTrailer ()
r 0.000809119 /NodeList/6/DeviceList/0/$ns3::WifiNetDevice/Phy/State/RxOk ns3::WifiMacHeader (CTL_ACK Duration/ID=0us, RA=00:00:00:00:00:09) ns3::WifiMacTrailer ()
r 0.000809164 /NodeList/7/DeviceList/0/$ns3::WifiNetDevice/Phy/State/RxOk ns3::WifiMacHeader (CTL_ACK Duration/ID=0us, RA=00:00:00:00:00:09) ns3::WifiMacTrailer ()
t 0.000842997 /NodeList/0/DeviceList/1/$ns3::WifiNetDevice/Phy/State/Tx ns3::WifiMacHeader (MGT_ASSOCIATION_RESPONSE ToDS=0, FromDS=0, MoreFrag=0, Retry=0, MoreData=0 Duration/ID=60us, DA=00:00:00:00:00:08, SA=00:00:00:00:00:09, BSSID=00:00:00:00:00:09, FragNumber=0, SeqNumber=2) ns3::MgtAssocResponseHeader (status code=success, rates=[*6mbs 9mbs *12mbs 18mbs *24mbs 36mbs 48mbs 54mbs], ERP information=0|0|0, HT Capabilities=0|0|0|0 , HT Operations=0|0|0 , VHT Capabilities= 0|0) ns3::WifiMacTrailer ()